/*--------------------------------*- C++ -*----------------------------------*\
  =========                 |
  \\      /  F ield         | OpenFOAM: The Open Source CFD Toolbox
   \\    /   O peration     | Website:  https://openfoam.org
    \\  /    A nd           | Version:  8
     \\/     M anipulation  |
\*---------------------------------------------------------------------------*/
FoamFile
{
    version     2.0;
    format      ascii;
    class       volScalarField;
    location    "0";
    object      V;
}
// * * * * * * * * * * * * * * * * * * * * * * * * * * * * * * * * * * * * * //

dimensions      [0 3 0 0 0 0 0];

internalField   nonuniform List<scalar> 
7871
(
1.7692145e-19
1.9329829e-19
1.8879296e-19
1.8777235e-19
1.8765652e-19
1.8742204e-19
1.8627654e-19
1.7241315e-19
2.5637456e-19
2.4993944e-19
2.3679863e-19
2.3441736e-19
2.3407048e-19
2.3405971e-19
2.3498707e-19
2.451007e-19
2.4730522e-19
2.0062983e-19
1.6833696e-19
2.4365771e-19
1.7337965e-18
1.7348221e-18
1.730849e-18
1.7297412e-18
1.7311363e-18
1.7424418e-18
1.8073066e-18
2.4198501e-19
2.6014627e-19
1.7900888e-19
2.2966685e-19
1.7784646e-18
1.7720789e-18
1.7722665e-18
1.7718458e-18
1.7728893e-18
1.7733626e-18
1.7202988e-18
1.8053833e-18
2.4382764e-19
2.6538476e-19
2.8076399e-19
1.8324671e-18
1.7149455e-18
1.7749983e-18
1.7799468e-18
1.7794406e-18
1.7794434e-18
1.7748829e-18
1.7718086e-18
1.7534185e-18
2.4822689e-19
2.4242022e-19
2.3757111e-19
2.5728754e-19
1.8713051e-18
1.7340683e-18
1.7756565e-18
1.7810297e-18
1.782004e-18
1.7800552e-18
1.7757271e-18
1.769349e-18
1.7127814e-18
1.7903922e-18
2.5049148e-19
2.4766415e-19
2.5676024e-19
2.752664e-19
1.7997706e-18
1.7177758e-18
1.7815001e-18
1.7889626e-18
1.7849025e-18
1.7769707e-18
1.7704258e-18
1.7084614e-18
1.8043725e-18
2.418241e-19
2.6987119e-19
2.7269267e-19
1.6388693e-19
1.627397e-19
4.0531075e-19
2.8949299e-19
2.1859515e-19
1.8554287e-19
2.0007565e-19
2.9885607e-19
2.935042e-19
3.220843e-19
2.349327e-19
2.2753556e-19
1.7883354e-18
1.7861247e-18
1.7846557e-18
1.8115621e-18
1.7241094e-18
1.7726883e-18
1.7745392e-18
2.3910135e-19
2.4104144e-19
2.3144099e-19
2.6285504e-19
2.7897405e-19
2.5470986e-19
2.1893829e-19
2.4936473e-19
2.321356e-19
2.3188326e-19
2.3392505e-19
1.8927752e-18
2.5582183e-19
2.6107902e-19
2.3520544e-19
2.3001354e-19
2.3317028e-19
2.5917471e-19
2.6111764e-19
2.52665e-19
1.8449739e-18
1.7252806e-18
1.774443e-18
2.4030233e-19
2.2789435e-19
1.9218253e-19
1.8523195e-19
2.5052772e-19
2.4439427e-19
2.6444728e-19
1.9930541e-19
2.1414011e-19
2.3817979e-19
1.7507466e-18
1.6580579e-18
1.7821668e-18
2.3177723e-19
2.7448152e-19
2.347944e-19
2.3225798e-19
2.8081412e-19
2.2799683e-19
2.2626546e-19
2.2557008e-19
2.3533912e-19
1.8498407e-18
1.6136139e-18
1.8551995e-18
2.3062383e-19
2.3090614e-19
1.9578989e-19
1.9066804e-19
1.8881935e-19
1.8838044e-19
1.8909114e-19
1.9194881e-19
1.9499657e-19
2.3269439e-19
2.2734966e-19
1.7492946e-18
2.250884e-19
2.3649883e-19
1.9332136e-19
2.2919653e-19
2.5253164e-19
1.8247475e-18
1.6378357e-18
1.7888517e-18
2.3829748e-19
2.5353873e-19
3.2500446e-19
2.3055449e-19
2.1895315e-19
1.4693682e-19
1.9974502e-19
2.4745821e-19
1.8722408e-18
2.5514959e-19
3.2936935e-19
2.0360298e-19
2.5323693e-19
2.5184665e-19
2.4122965e-19
2.3721537e-19
2.376164e-19
2.5124596e-19
2.5446002e-19
1.9819547e-19
2.8475173e-19
2.3197361e-19
1.7580271e-18
2.2301057e-19
2.2860101e-19
1.761755e-18
1.7942831e-18
1.7127726e-18
1.7673376e-18
2.3888898e-19
2.3597415e-19
2.2695399e-19
1.5574517e-19
3.0718862e-19
2.4222024e-19
2.7430765e-19
2.4233458e-19
2.6047888e-19
2.6048696e-19
2.6494738e-19
2.4149325e-19
2.333585e-19
2.5054616e-19
2.3432157e-19
2.5099551e-19
1.6177609e-18
1.7767431e-18
1.7344291e-18
1.7225592e-18
1.7157227e-18
1.767568e-18
1.7245681e-18
2.4112955e-19
2.3159207e-19
2.918844e-19
2.8850656e-19
2.4176645e-19
2.0640454e-19
3.0053392e-19
2.7920315e-19
2.7636022e-19
2.7425098e-19
2.5666387e-19
2.4639682e-19
2.2515065e-19
2.9384849e-19
2.5829142e-19
2.5172497e-19
2.6827251e-19
2.4043232e-19
2.0672718e-19
2.5150246e-19
2.6555717e-19
1.7601658e-18
2.4197236e-19
2.4693866e-19
2.4590634e-19
1.8496728e-18
1.7284967e-18
1.7728473e-18
2.4083418e-19
2.2945453e-19
2.8148416e-19
1.8680606e-18
2.5946699e-19
2.312437e-19
2.4413788e-19
2.4420703e-19
1.7836479e-18
1.7981364e-18
1.7967413e-18
1.8490586e-18
2.5672299e-19
2.5857217e-19
1.5414458e-19
1.4164331e-19
2.2901685e-19
1.8075428e-19
2.3245394e-19
2.2863377e-19
2.588958e-19
2.6473548e-19
2.6261368e-19
2.4442851e-19
1.8418762e-18
1.6506875e-18
1.8293349e-18
2.4106373e-19
2.531268e-19
2.5594066e-19
1.8183791e-18
2.6161069e-19
2.2566547e-19
2.3797552e-19
2.3197356e-19
1.7395075e-18
1.7878453e-18
1.7922776e-18
1.746699e-18
1.8987185e-18
2.4350632e-19
1.68184e-19
1.9239863e-19
2.0453406e-19
2.3072822e-19
2.257843e-19
1.9405559e-19
2.1115624e-19
2.3579958e-19
1.7859987e-18
1.7365409e-18
1.89165e-18
2.5282118e-19
2.2800605e-19
2.2309259e-19
1.8456165e-18
1.7457356e-18
2.4802594e-19
2.5721842e-19
2.3726792e-19
2.323717e-19
1.7390707e-18
1.7815882e-18
1.7863507e-18
1.7855798e-18
1.7431992e-18
1.8980381e-18
2.575187e-19
2.0179305e-19
1.5525412e-19
1.7360355e-19
1.5499272e-19
1.9124613e-19
2.938018e-19
1.85301e-19
2.2232081e-19
2.2546463e-19
1.7446613e-19
2.1176989e-19
2.4010093e-19
1.790628e-18
1.7781492e-18
1.7281222e-18
1.8177443e-18
2.2581385e-19
1.8014157e-18
1.7126983e-18
1.7107061e-18
1.8214375e-18
2.3397728e-19
2.5616727e-19
2.7493308e-19
2.7736633e-19
2.841947e-19
2.9584603e-19
2.1338158e-19
2.4636331e-19
1.7600826e-18
1.7831853e-18
1.7856016e-18
1.7807035e-18
1.7766656e-18
1.6860579e-18
1.8619774e-18
2.3899541e-19
3.0514714e-19
2.2577772e-19
2.5406233e-19
3.1085968e-19
1.7606465e-19
3.7082704e-19
2.7549237e-19
2.1844689e-19
2.1571653e-19
3.0212792e-19
1.8194678e-18
2.2706092e-19
2.8148109e-19
2.2396899e-19
2.1936553e-19
2.8734789e-19
1.8475806e-18
1.7192089e-18
1.7734683e-18
1.7720893e-18
1.7119506e-18
1.8263579e-18
1.7091193e-18
1.7655832e-18
1.7673245e-18
1.7165686e-18
1.7980118e-18
1.7770325e-18
1.7947407e-18
1.7873699e-18
2.4068893e-19
2.4694782e-19
2.6925359e-19
1.7878474e-18
1.7887654e-18
1.782834e-18
1.7762185e-18
1.7255659e-18
1.8510905e-18
2.4782191e-19
2.6470821e-19
2.5278145e-19
2.4518083e-19
1.809766e-18
2.4223903e-19
2.731976e-19
2.0553293e-19
2.4309866e-19
2.3994283e-19
2.4139502e-19
1.8526574e-18
1.6695764e-18
1.8230254e-18
2.3316602e-19
2.4444382e-19
2.4373926e-19
1.8513567e-18
1.7324974e-18
1.7744811e-18
1.7769924e-18
1.775873e-18
1.774731e-18
1.7777445e-18
1.7738683e-18
1.7745763e-18
1.7753439e-18
1.7746667e-18
1.7817715e-18
1.7876433e-18
1.7850904e-18
1.7433437e-18
2.4546743e-19
2.3887452e-19
2.7641955e-19
1.803463e-18
1.7895194e-18
1.7791611e-18
1.7222517e-18
1.8364744e-18
2.4563083e-19
2.9681248e-19
2.2266944e-19
2.184808e-19
2.942178e-19
2.3964895e-19
2.5605226e-19
2.6788203e-19
1.8597662e-19
2.3643397e-19
1.7617528e-18
1.7306567e-18
1.7118913e-18
1.7655733e-18
1.71232e-18
1.7846312e-18
1.7434498e-18
1.7925613e-18
1.7180454e-18
1.7699568e-18
1.7749814e-18
1.7793612e-18
1.7786236e-18
1.7781762e-18
1.7779569e-18
1.7778249e-18
1.7779109e-18
1.7782056e-18
1.7789964e-18
1.7807808e-18
1.7831993e-18
1.7776694e-18
1.7357225e-18
2.4371967e-19
2.3780474e-19
2.7853797e-19
1.8451291e-18
1.7327269e-18
1.778982e-18
1.8007504e-18
2.463551e-19
2.6605473e-19
1.748008e-19
2.4440436e-19
2.7156135e-19
2.4799661e-19
2.567817e-19
2.5238398e-19
1.7935378e-19
2.5842025e-19
2.3073593e-19
1.8379467e-18
1.7223772e-18
1.7744271e-18
1.7716991e-18
1.710967e-18
1.7815612e-18
1.7349834e-18
1.7827181e-18
1.7151568e-18
1.7726373e-18
1.7768007e-18
1.7787169e-18
1.7781182e-18
1.7778969e-18
1.7779102e-18
1.7779522e-18
1.7780489e-18
1.7783042e-18
1.7787856e-18
1.7767194e-18
1.7712004e-18
1.7410601e-18
2.445656e-19
2.3887867e-19
2.7651039e-19
2.4327454e-19
1.8441547e-18
1.723619e-18
1.760167e-18
2.5227193e-19
2.1898235e-19
2.5527394e-19
2.3933019e-19
2.3551967e-19
2.5746726e-19
2.3598652e-19
2.3975316e-19
1.8246319e-18
1.7693004e-18
1.763448e-18
1.7881012e-18
2.4109229e-19
2.4362419e-19
2.431337e-19
1.8384849e-18
1.7196076e-18
1.7731776e-18
1.7752149e-18
1.7721268e-18
1.7746499e-18
1.7779042e-18
1.7780049e-18
1.7779536e-18
1.7777455e-18
1.7743925e-18
1.7682519e-18
1.7108792e-18
1.7868424e-18
2.4980059e-19
2.4719674e-19
1.7839627e-19
3.0829997e-19
2.3392681e-19
1.8176501e-18
1.7172571e-18
2.5912393e-19
2.2218223e-19
2.7128353e-19
1.7841054e-18
2.3852414e-19
2.6318179e-19
2.8824227e-19
3.0143046e-19
3.1480403e-19
2.4752332e-19
2.553511e-19
2.5298762e-19
2.5425742e-19
2.5222214e-19
2.5297601e-19
2.2147483e-19
2.3824093e-19
1.7917896e-18
1.7364474e-18
1.7775438e-18
1.7105166e-18
1.7688558e-18
1.7753731e-18
1.7783636e-18
1.7779815e-18
1.7741435e-18
1.7664145e-18
1.7071092e-18
1.8035791e-18
2.4157725e-19
2.6925669e-19
2.7240439e-19
1.8806567e-19
2.2437608e-19
2.2580062e-19
1.7912232e-18
2.6236434e-19
2.2393993e-19
2.6867738e-19
1.7826393e-18
2.5679773e-19
2.687288e-19
2.5764584e-19
2.1202502e-19
1.5050185e-19
3.3298065e-19
2.8534166e-19
2.7963323e-19
2.9646188e-19
1.9803559e-19
1.6432119e-19
2.5691355e-19
2.4193746e-19
2.4489541e-19
2.4099792e-19
1.8159852e-18
1.7162449e-18
1.7755079e-18
1.7794143e-18
1.7752974e-18
1.7677539e-18
1.7070654e-18
1.7989068e-18
2.3869954e-19
2.4119959e-19
2.2787487e-19
2.319799e-19
2.2771994e-19
1.7422872e-18
2.6289344e-19
2.2534423e-19
6.8592769e-20
2.4858271e-19
2.3702319e-19
2.5172153e-19
2.6316172e-19
2.3579807e-19
2.2678643e-19
2.3423839e-19
1.801804e-18
1.7837738e-18
1.7733191e-18
1.7679561e-18
1.7137366e-18
1.8047533e-18
2.3878201e-19
2.4215167e-19
2.3459948e-19
1.8769827e-19
2.3453367e-19
2.2870509e-19
1.7309076e-18
2.6033926e-19
2.2516239e-19
2.5167212e-19
2.3931892e-19
2.5769945e-19
2.6269858e-19
2.5761415e-19
1.7848717e-18
1.8011278e-18
1.7147887e-18
1.712639e-18
1.8301634e-18
2.4193419e-19
2.4132245e-19
2.3553308e-19
2.633512e-19
1.5654638e-19
2.3406186e-19
2.2894919e-19
1.8037623e-18
2.5210797e-19
2.2545365e-19
2.3167501e-19
2.3680018e-19
2.8482792e-19
2.2651147e-19
2.5319629e-19
2.4793681e-19
1.8297853e-18
1.7429664e-18
2.456364e-19
2.6629554e-19
2.2542386e-19
1.9069112e-19
1.6637048e-19
2.3759894e-19
1.7931018e-18
1.6586067e-18
1.8410134e-18
2.3493764e-19
1.9746577e-19
2.5374059e-19
2.3612583e-19
2.3481301e-19
1.9818937e-19
3.2114636e-19
2.6005492e-19
2.3491423e-19
2.3542359e-19
1.7854074e-18
2.5239223e-19
2.1924937e-19
2.6605644e-19
2.7869722e-19
1.852022e-18
1.7231819e-18
1.6672074e-18
1.8698579e-18
2.5217396e-19
2.719504e-19
2.6663955e-19
2.6025516e-19
2.4304452e-19
2.5672605e-19
1.5344179e-19
2.148435e-19
2.7334521e-19
2.5738564e-19
2.5212283e-19
1.7605745e-18
2.5806545e-19
2.2190297e-19
2.0208281e-19
2.6018885e-19
1.807025e-18
1.7692603e-18
2.4387829e-19
2.8395527e-19
1.914188e-19
2.3311812e-19
2.6311374e-19
2.6094056e-19
2.7461832e-19
2.8527856e-19
2.4104876e-19
2.332271e-19
2.4856767e-19
2.6367531e-19
2.5731252e-19
2.4045031e-19
2.524191e-19
2.4876194e-19
2.5222275e-19
1.8339646e-18
2.5220714e-19
2.2170182e-19
1.9708731e-19
2.3106182e-19
2.416375e-19
2.4331648e-19
1.9789219e-19
2.7341257e-19
2.5266154e-19
3.0396709e-19
2.6752487e-19
2.6068964e-19
2.7576514e-19
2.9020231e-19
1.6684474e-19
2.4828431e-19
2.3920353e-19
2.3742357e-19
2.3640447e-19
2.4428259e-19
2.3744297e-19
2.40562e-19
2.5019333e-19
2.7991913e-19
2.25662e-19
2.5172257e-19
2.3324423e-19
1.8523826e-18
1.6716485e-18
1.7952853e-18
2.3552516e-19
1.9412811e-19
1.8461975e-19
2.3155355e-19
2.2808345e-19
2.3266997e-19
1.7791975e-19
2.7950313e-19
1.7424053e-18
1.7925666e-18
2.3881949e-19
2.8455757e-19
1.8107513e-19
2.3941783e-19
2.329332e-19
2.3372555e-19
2.5620486e-19
2.5477278e-19
2.7646071e-19
2.701091e-19
2.5414509e-19
1.8394821e-18
1.7234095e-18
1.7750911e-18
1.8023993e-18
2.5057099e-19
2.853445e-19
1.847492e-19
2.3520896e-19
2.3727434e-19
2.8762814e-19
1.4267041e-19
2.7024229e-19
1.820383e-18
2.4072433e-19
2.4583616e-19
2.4007791e-19
1.4189233e-19
2.897363e-19
2.4106174e-19
2.4083176e-19
2.724503e-19
2.6759501e-19
2.5389961e-19
1.851362e-18
1.6701663e-18
1.7694488e-18
1.7708267e-18
1.7181397e-18
1.8176602e-18
2.5388443e-19
2.7110191e-19
2.0536203e-19
2.5310777e-19
2.456494e-19
2.5911252e-19
6.8351877e-20
2.4526687e-19
1.6537455e-18
1.7801931e-18
2.2670951e-19
1.8944019e-19
2.672567e-19
2.676566e-19
2.6606663e-19
3.0944771e-19
2.7046333e-19
2.4072852e-19
1.8461806e-18
1.7191953e-18
1.7642242e-18
1.7113636e-18
1.7776604e-18
2.4832453e-19
2.4214659e-19
3.3158426e-19
3.3543375e-19
1.8361079e-19
2.4537966e-19
2.3331225e-19
2.2482852e-19
2.422123e-19
1.8835e-18
2.5848344e-19
2.0225377e-19
1.5314833e-19
2.5223176e-19
2.3378044e-19
2.5869052e-19
2.7331271e-19
3.043334e-19
2.3665553e-19
1.8395553e-18
1.6656836e-18
1.8353255e-18
2.4138044e-19
2.4183924e-19
2.293989e-19
1.9008057e-19
2.072129e-19
1.6823337e-19
1.6027502e-19
3.3058842e-19
2.6416814e-19
2.0873706e-19
2.0702086e-19
2.4961758e-19
2.4058036e-19
1.8409102e-18
2.3517171e-19
3.036432e-19
2.8417519e-19
2.716326e-19
2.4262943e-19
2.0458552e-19
1.7803925e-19
2.4898035e-19
2.3895043e-19
1.8375172e-18
2.4725337e-19
2.6797908e-19
2.2504551e-19
1.977873e-19
3.6481631e-19
2.3911125e-19
2.6949708e-19
1.978756e-19
2.7001749e-19
2.5072927e-19
1.7186477e-18
1.7463611e-18
2.4386543e-19
2.9067202e-19
2.6755597e-19
2.6447463e-19
2.6412523e-19
2.4651018e-19
2.3581622e-19
2.6809511e-19
2.6314057e-19
2.1622325e-19
2.8913999e-19
2.7146635e-19
1.8207663e-19
1.8983194e-19
1.9182197e-19
2.3417224e-19
2.0787864e-19
2.1172278e-19
2.300976e-19
1.8216358e-18
2.5063234e-19
2.6594428e-19
2.9269747e-19
2.5085477e-19
2.45539e-19
2.4795525e-19
2.0625323e-19
1.4621635e-19
2.0251979e-19
2.8802337e-19
2.5296275e-19
2.5911903e-19
2.7243158e-19
2.6754322e-19
2.6398402e-19
2.3792128e-19
2.2935028e-19
2.249679e-19
1.7912173e-19
1.811383e-19
2.5825896e-19
1.7676385e-18
1.8507314e-18
2.5153513e-19
2.3607456e-19
2.5506348e-19
2.2723694e-19
2.2765014e-19
1.7314941e-18
2.2805964e-19
2.8446105e-19
2.2984552e-19
2.9470421e-19
1.840222e-19
1.8375658e-19
1.8773396e-19
2.5137247e-19
2.5364058e-19
2.7091316e-19
2.6092988e-19
2.4351741e-19
2.3486265e-19
2.2382523e-19
2.2738971e-19
1.9844245e-19
2.5794159e-19
2.6028287e-19
2.6009653e-19
2.6268036e-19
2.477525e-19
2.4873507e-19
1.7544717e-19
3.118828e-19
1.8628815e-19
2.2847845e-19
1.6578007e-18
1.8185311e-18
2.3321955e-19
2.4238316e-19
2.4118779e-19
1.8594113e-19
2.3937623e-19
2.4072309e-19
2.6817079e-19
2.429812e-19
1.4027235e-19
4.2609354e-19
2.3327362e-19
2.3865545e-19
2.8637768e-19
2.4673302e-19
2.3071829e-19
2.2074018e-19
3.0543511e-19
2.3768163e-19
1.7746173e-18
2.4119981e-19
2.6250027e-19
2.6424757e-19
2.7320284e-19
2.5368325e-19
1.8009217e-19
1.801661e-19
2.2779877e-19
1.7623041e-18
1.7029804e-18
1.7654534e-18
2.2787789e-19
2.3473832e-19
1.8831828e-19
2.8314014e-19
1.8314249e-18
2.5261648e-19
2.3547e-19
3.0489282e-19
1.9110961e-19
1.8969986e-19
2.5645103e-19
2.6429426e-19
2.6755194e-19
1.850764e-19
2.2330957e-19
2.245137e-19
1.7052057e-18
1.7701895e-18
1.7699744e-18
1.7422159e-18
2.3729854e-19
3.0676186e-19
1.9045774e-19
2.8364222e-19
1.8290369e-18
1.700726e-18
1.7046848e-18
1.7689933e-18
2.4214165e-19
2.3515243e-19
1.9244167e-19
2.7618918e-19
1.7436443e-18
2.5944872e-19
2.6194636e-19
7.1474645e-20
2.6439097e-19
2.0207665e-19
2.7313939e-19
2.609979e-19
2.5761176e-19
2.3125278e-19
2.3648672e-19
1.7839988e-18
2.4071173e-19
2.4167124e-19
1.6973245e-18
1.77536e-18
2.3106273e-19
2.215016e-19
2.2507191e-19
1.8872487e-18
1.7287702e-18
1.7091456e-18
1.8270219e-18
2.4428288e-19
2.4905488e-19
2.3628801e-19
1.9275253e-19
2.1112432e-19
2.2516784e-19
2.4327676e-19
2.0400586e-19
2.5443494e-19
2.4661206e-19
2.8848721e-19
2.5283611e-19
3.0757309e-19
2.5265951e-19
2.6862077e-19
2.4527967e-19
2.5010549e-19
2.3213351e-19
2.2564693e-19
2.3631831e-19
1.7305146e-18
2.2187258e-19
1.8078921e-18
1.7245113e-18
1.7762647e-18
1.7842114e-18
2.4288802e-19
2.6590738e-19
2.5130616e-19
2.068714e-19
2.2308074e-19
2.2437599e-19
2.3536661e-19
2.5351158e-19
1.8055082e-18
2.5479612e-19
2.6641687e-19
2.0947271e-19
2.5526882e-19
3.442587e-19
3.1359731e-19
2.0250612e-19
1.8837652e-19
2.2366737e-19
2.1537816e-19
2.2015495e-19
1.7718372e-18
1.7012829e-18
1.7688165e-18
1.7759763e-18
1.7805141e-18
2.4263685e-19
2.4343249e-19
2.5095751e-19
2.301031e-19
2.2822383e-19
2.4865304e-19
2.9114066e-19
6.955598e-20
2.3756163e-19
2.2338052e-19
2.2830741e-19
2.8009145e-19
2.2952321e-19
2.4913991e-19
2.3178525e-19
2.5905476e-19
2.66488e-19
2.8443017e-19
2.2852607e-19
2.24549e-19
1.7608806e-18
1.7071742e-18
1.7833722e-18
1.7329361e-18
1.7150472e-18
1.749148e-18
2.2958819e-19
2.1999849e-19
2.5645928e-19
2.5949087e-19
2.5453179e-19
2.5729256e-19
2.6069014e-19
1.7859012e-19
3.2568493e-19
2.5552992e-19
2.3368226e-19
2.2234758e-19
2.2864135e-19
2.4296129e-19
2.2833181e-19
1.9199232e-19
1.8967093e-19
2.9466984e-19
2.437349e-19
2.3940964e-19
2.6199942e-19
2.6538014e-19
2.1684122e-19
2.3175373e-19
1.7602094e-18
1.6387267e-18
1.8232991e-18
2.4360548e-19
2.4515537e-19
2.4381227e-19
1.7618786e-18
1.7482789e-18
2.3088325e-19
2.4005895e-19
2.5467425e-19
2.4198384e-19
1.8051745e-18
2.3555321e-19
2.3870075e-19
2.7283676e-19
2.5847789e-19
1.800731e-18
2.3946026e-19
2.8523062e-19
1.979065e-19
2.427668e-19
2.4060706e-19
2.2933765e-19
2.4641545e-19
3.2319375e-19
1.8991786e-19
1.8825048e-19
1.8906245e-19
1.8171908e-19
2.5127516e-19
2.6244724e-19
1.7876033e-18
1.7206265e-18
2.4420828e-19
2.6726443e-19
2.5805922e-19
2.4874228e-19
2.3785301e-19
1.659844e-18
1.7855893e-18
2.3015919e-19
2.4915442e-19
2.6531231e-19
2.478927e-19
2.694609e-19
2.1339103e-19
2.4672711e-19
2.3799169e-19
1.7437578e-18
2.5817728e-19
2.2672372e-19
2.4038237e-19
2.2933631e-19
2.2902194e-19
2.4269423e-19
2.3048046e-19
1.73227e-18
2.4579744e-19
2.5257606e-19
2.4518103e-19
1.7545933e-18
2.3606627e-19
2.4046977e-19
2.0103286e-19
2.0555827e-19
2.6820443e-19
2.3905704e-19
2.3480962e-19
1.7330609e-18
2.5661685e-19
2.2175184e-19
1.7540177e-19
2.4218132e-19
2.3252223e-19
2.352337e-19
2.7557529e-19
2.4118986e-19
2.2561506e-19
2.440953e-19
2.0981635e-19
2.2590977e-19
1.7425591e-18
2.1940762e-19
2.3534935e-19
1.9808617e-19
2.4082164e-19
2.1191534e-19
2.1510146e-19
2.4955391e-19
1.7925321e-18
2.4993945e-19
2.9674845e-19
2.2097594e-19
2.3896391e-19
1.8115474e-18
2.4389191e-19
2.6287143e-19
2.2499568e-19
2.2783072e-19
2.3663161e-19
1.8802446e-19
2.3339629e-19
1.6603556e-18
1.7422563e-18
2.2263985e-19
2.2826755e-19
2.3097608e-19
1.9150558e-19
2.6997518e-19
2.3947e-19
1.8370815e-18
2.3950673e-19
2.4867502e-19
2.5128155e-19
2.458847e-19
2.8805489e-19
1.7719962e-19
2.4461988e-19
2.4215408e-19
1.8842573e-19
2.4282571e-19
1.7427399e-18
1.7448005e-18
2.4877549e-19
2.3938746e-19
2.3642394e-19
1.9170962e-19
1.7768359e-19
3.0652919e-19
2.455578e-19
2.6683451e-19
2.3665661e-19
2.3182117e-19
2.971797e-19
2.6498643e-19
2.4751064e-19
2.5316646e-19
2.2290743e-19
1.5304483e-19
3.0687876e-19
2.3930134e-19
2.4909417e-19
3.0424052e-19
2.5991641e-19
2.6281108e-19
2.7564094e-19
2.723732e-19
2.0149764e-19
2.8826711e-19
2.6296288e-19
2.2146747e-19
2.5564574e-19
2.8210936e-19
1.3927125e-19
2.4725023e-19
3.3068655e-19
2.2724671e-19
2.7599082e-19
2.3532694e-19
2.3205903e-19
2.9121394e-19
2.4700652e-19
2.5285581e-19
3.1510104e-19
2.0660654e-19
1.9380252e-19
2.7403084e-19
2.8754378e-19
1.7799955e-19
1.9393992e-19
2.7453265e-19
2.8793975e-19
1.9058888e-19
2.5533034e-19
2.439474e-19
1.9331921e-19
1.9059136e-19
2.5546396e-19
2.4400375e-19
1.8803531e-19
2.3984373e-19
2.3829434e-19
1.8879307e-19
1.880345e-19
2.3988573e-19
2.383363e-19
1.8769505e-19
2.3772584e-19
2.3753086e-19
1.8777079e-19
1.8769299e-19
2.3776921e-19
2.3757496e-19
1.8758642e-19
2.3744893e-19
2.3737131e-19
1.8765431e-19
1.8758512e-19
2.3749293e-19
2.3741434e-19
1.8705597e-19
2.3724761e-19
2.3705956e-19
1.8742208e-19
1.870573e-19
2.3728731e-19
2.3709106e-19
1.8347667e-19
2.369275e-19
2.3747958e-19
1.8627666e-19
1.8349355e-19
2.3694547e-19
2.3748856e-19
1.446802e-19
2.391993e-19
2.1480608e-19
1.7247626e-19
1.4536575e-19
2.3921483e-19
2.1473253e-19
1.4251667e-19
2.1265408e-19
1.4317883e-19
2.1258166e-19
2.7138615e-19
2.9032127e-19
2.6731703e-19
2.5634074e-19
2.7161152e-19
2.9029249e-19
2.6742285e-19
2.5477944e-19
2.7641209e-19
2.6962342e-19
2.4724268e-19
2.5501314e-19
2.7656641e-19
2.6975344e-19
2.2694494e-19
1.7693817e-19
2.0234464e-19
2.2711563e-19
1.7793811e-19
2.3503765e-19
1.7781699e-19
2.3104439e-19
1.6835601e-19
2.3508208e-19
1.7781519e-19
2.3110812e-19
2.655139e-19
2.7361596e-19
3.1022853e-19
2.602933e-19
2.6576801e-19
2.7375353e-19
3.1025511e-19
2.7277225e-19
1.5709023e-19
2.731012e-19
1.5794284e-19
2.2762248e-19
1.9728861e-19
2.4113076e-19
1.7898454e-19
2.2766579e-19
1.966743e-19
2.4096815e-19
1.818201e-19
2.4763261e-19
1.893649e-19
2.6568101e-19
1.8194748e-19
2.4775452e-19
1.8938598e-19
2.486642e-19
2.0111386e-19
3.3294256e-19
2.5123715e-19
1.9966904e-19
3.3410764e-19
1.9006542e-19
2.4241981e-19
1.9006809e-19
2.4248058e-19
1.9006893e-19
2.4247417e-19
1.9007027e-19
2.8724558e-19
2.9377117e-19
3.2887707e-19
2.3110154e-19
2.844248e-19
3.0307133e-19
3.342078e-19
1.8941276e-19
2.65535e-19
1.8208035e-19
2.4775889e-19
1.8942793e-19
2.6573597e-19
1.8219388e-19
1.7772155e-19
3.2749743e-19
1.7886846e-19
3.2869754e-19
2.8739463e-19
2.5985127e-19
2.8783594e-19
2.5997529e-19
2.6219996e-19
2.2149106e-19
2.6239396e-19
2.2377613e-19
2.504718e-19
2.5296604e-19
2.3627952e-19
2.3495761e-19
2.3658654e-19
2.3501001e-19
2.389401e-19
2.5025234e-19
2.3898136e-19
2.5036703e-19
2.8756208e-19
1.7734691e-19
2.8789294e-19
1.7656935e-19
3.5816892e-19
2.0172503e-19
2.5773364e-19
3.5957399e-19
1.9950543e-19
3.1035254e-19
2.5138855e-19
2.6600569e-19
2.7000929e-19
3.1033472e-19
2.5160308e-19
2.6632744e-19
1.577723e-19
2.7285509e-19
1.5861435e-19
1.5515676e-19
2.0462339e-19
1.5587261e-19
2.0344195e-19
1.3846891e-19
2.5255357e-19
2.1720745e-19
1.6394832e-19
1.388928e-19
2.5206282e-19
2.1699055e-19
3.4899334e-19
1.6364759e-19
3.5023176e-19
1.880097e-19
2.3482647e-19
2.3334415e-19
2.1881735e-19
1.8807201e-19
2.3514739e-19
2.3346886e-19
1.8380987e-19
2.3363824e-19
2.3265601e-19
1.8555308e-19
1.8371221e-19
2.3367027e-19
2.3250426e-19
1.8567838e-19
1.855785e-19
1.8550751e-19
1.8555511e-19
2.4793069e-19
2.3533801e-19
2.3244089e-19
2.3470906e-19
2.4784016e-19
2.3532795e-19
2.3243035e-19
2.2543114e-19
2.2691782e-19
2.2877553e-19
2.4103969e-19
2.253944e-19
2.2693437e-19
2.2878262e-19
1.860046e-19
2.1105635e-19
2.3161135e-19
1.8708879e-19
2.1119174e-19
1.5607999e-19
1.8691999e-19
1.5728846e-19
1.8635507e-19
3.1231877e-19
2.9197848e-19
2.6913495e-19
2.6565349e-19
3.1326711e-19
2.9267871e-19
2.6995817e-19
3.2512944e-19
1.8017743e-19
2.570952e-19
3.2631151e-19
1.7877083e-19
1.5803286e-19
1.5897752e-19
2.6735715e-19
2.1636196e-19
2.6088269e-19
2.1890522e-19
2.6758009e-19
2.1632153e-19
2.6108235e-19
1.7604484e-19
2.5399789e-19
1.4622596e-19
2.605403e-19
1.7576874e-19
2.540581e-19
1.4676649e-19
1.8506887e-19
1.8505227e-19
1.8506525e-19
1.8504338e-19
2.3204752e-19
2.3533139e-19
2.3233093e-19
2.3524839e-19
2.3206501e-19
2.3537207e-19
2.3234148e-19
2.3018234e-19
2.4400351e-19
2.2960242e-19
2.2795255e-19
2.3029892e-19
2.4409459e-19
2.2975531e-19
2.24328e-19
1.9226616e-19
2.2442658e-19
2.3376686e-19
2.2228522e-19
2.3062621e-19
1.8537447e-19
2.3370263e-19
2.2250036e-19
2.3059088e-19
2.44263e-19
2.5365699e-19
2.3819333e-19
2.65016e-19
2.4383883e-19
2.5378924e-19
2.3808357e-19
2.2916523e-19
1.993704e-19
2.2929086e-19
1.837724e-19
2.5421325e-19
1.8490069e-19
2.5472257e-19
2.2842315e-19
2.8395134e-19
2.3111241e-19
2.7454098e-19
2.2799363e-19
2.8472672e-19
2.3145219e-19
1.8493441e-19
1.8445953e-19
1.8491815e-19
1.8443676e-19
2.3113209e-19
2.3345364e-19
2.2455564e-19
2.3480683e-19
2.3108775e-19
2.3340044e-19
2.243314e-19
2.4024705e-19
2.31466e-19
2.3404743e-19
2.3225349e-19
2.4030176e-19
2.3141671e-19
2.3419631e-19
2.383501e-19
2.0876374e-19
2.8077783e-19
2.3830864e-19
2.0881597e-19
2.2759258e-19
2.2800541e-19
2.2758583e-19
2.2354093e-19
2.2625359e-19
2.2353604e-19
2.9575898e-19
1.7955041e-19
2.2553549e-19
2.958653e-19
1.7924088e-19
2.2303193e-19
2.1672767e-19
2.2795301e-19
2.3081796e-19
2.2324727e-19
2.1622064e-19
2.2775253e-19
1.9274728e-19
2.4467518e-19
2.4850812e-19
1.9587572e-19
1.9278042e-19
2.4485432e-19
2.4869635e-19
1.8943783e-19
2.4622351e-19
2.4339997e-19
1.9067191e-19
1.8943283e-19
2.4634635e-19
2.4347609e-19
1.8850077e-19
2.4167636e-19
2.4053095e-19
1.8881509e-19
1.8849861e-19
2.4174246e-19
2.4059156e-19
1.8852419e-19
2.3982336e-19
2.3976516e-19
1.8837958e-19
1.8852413e-19
2.3987858e-19
2.3981871e-19
1.9023699e-19
2.4072377e-19
2.4313871e-19
1.890928e-19
1.9024264e-19
2.4078056e-19
2.432063e-19
1.9378143e-19
2.4701833e-19
2.5008525e-19
1.9196428e-19
1.9381439e-19
2.4710812e-19
2.5020163e-19
2.306669e-19
2.4616986e-19
2.305941e-19
1.9506738e-19
2.30822e-19
2.4629457e-19
2.3069346e-19
2.1751108e-19
2.159099e-19
2.1731429e-19
2.3272624e-19
2.1732714e-19
2.1580136e-19
2.1716489e-19
2.12261e-19
2.3101074e-19
2.4408047e-19
1.9340332e-19
2.1244174e-19
2.3110431e-19
2.4405458e-19
2.6409614e-19
2.3690858e-19
2.4214839e-19
2.5365903e-19
2.6467644e-19
2.3678993e-19
2.4171656e-19
2.4314981e-19
1.8046545e-19
3.2631425e-19
2.4591795e-19
1.7910877e-19
1.8429005e-19
1.8499717e-19
1.8427622e-19
1.8500619e-19
2.3603932e-19
2.4190023e-19
2.3268351e-19
2.3048778e-19
2.3616954e-19
2.4220505e-19
2.3288127e-19
1.7754962e-19
2.193333e-19
1.777224e-19
1.4778589e-19
1.3956018e-19
1.4034533e-19
3.0046519e-19
2.5050332e-19
1.9955919e-19
3.004141e-19
2.5045916e-19
1.8344743e-19
2.5482754e-19
3.3067606e-19
1.8171611e-19
2.5795839e-19
2.2663661e-19
1.9019124e-19
2.0365736e-19
2.2682851e-19
1.9147109e-19
2.6179825e-19
2.6217978e-19
3.1048521e-19
2.5351824e-19
2.6201463e-19
2.626575e-19
3.1048911e-19
2.2830058e-19
2.6301573e-19
1.9000035e-19
2.5462361e-19
2.2839051e-19
2.631528e-19
1.912785e-19
1.9077257e-19
1.9822001e-19
1.9039255e-19
2.5988798e-19
2.3066677e-19
2.5665826e-19
2.8484029e-19
2.6007872e-19
2.3066999e-19
2.5688422e-19
2.3665022e-19
2.3155689e-19
2.2675604e-19
2.3586537e-19
2.3662921e-19
2.3167317e-19
2.268255e-19
1.9474054e-19
2.2707811e-19
1.9479509e-19
1.5669911e-19
1.8014308e-19
1.8116229e-19
1.9785988e-19
2.1078489e-19
1.9777369e-19
2.0805218e-19
2.8997377e-19
3.786573e-19
3.409285e-19
3.1302313e-19
2.9506511e-19
3.8159538e-19
3.4247327e-19
2.0789327e-19
1.3305761e-19
2.0777098e-19
1.3334946e-19
2.6266734e-19
2.6547594e-19
2.41599e-19
2.3272285e-19
2.4186053e-19
2.3275184e-19
2.2875306e-19
2.2674656e-19
2.2874906e-19
2.2673896e-19
2.2628426e-19
2.2657382e-19
2.2627415e-19
2.2656218e-19
2.2690059e-19
2.2620465e-19
2.2689495e-19
2.2620301e-19
2.0723363e-19
2.3105193e-19
2.919271e-19
2.0696605e-19
2.3100347e-19
2.9195151e-19
1.945667e-19
2.5340953e-19
1.9296556e-19
2.4226945e-19
1.946276e-19
2.53487e-19
1.9298303e-19
2.6813508e-19
2.0869959e-19
2.6862539e-19
2.1013207e-19
2.0624608e-19
2.7477536e-19
1.8867094e-19
2.6041308e-19
2.0561567e-19
2.7516099e-19
1.8879866e-19
2.6390193e-19
1.5715255e-19
2.6380669e-19
1.5798517e-19
2.4565703e-19
1.7960937e-19
2.0245626e-19
2.6034285e-19
2.4505122e-19
1.7964705e-19
2.0096492e-19
2.6254116e-19
2.2810212e-19
1.8926515e-19
2.507055e-19
2.6271694e-19
2.2825069e-19
1.9045411e-19
2.7643066e-19
2.395524e-19
2.9624954e-19
2.3438405e-19
2.7679377e-19
2.3989158e-19
2.9714029e-19
1.8740775e-19
2.317208e-19
1.8442352e-19
2.3167723e-19
1.874114e-19
2.3183328e-19
1.8443433e-19
2.6110687e-19
2.404578e-19
2.6138227e-19
2.4042689e-19
2.6304409e-19
2.9020331e-19
2.7979119e-19
2.918871e-19
2.6212199e-19
2.9031165e-19
2.797061e-19
1.6963226e-19
2.8804892e-19
3.3855852e-19
2.4127784e-19
1.6831254e-19
2.8871583e-19
3.3997655e-19
2.3858466e-19
2.4079847e-19
1.5630966e-19
1.7956025e-19
1.5701126e-19
1.7952734e-19
3.356677e-19
2.4987117e-19
2.7275862e-19
2.051037e-19
3.3676816e-19
2.4932339e-19
2.7328059e-19
1.8999207e-19
2.5487399e-19
2.0073565e-19
2.4626185e-19
1.8992972e-19
2.5426715e-19
1.9923497e-19
2.5700229e-19
2.0502054e-19
2.5550565e-19
2.2527065e-19
2.5714988e-19
2.0525047e-19
2.5570196e-19
2.5056377e-19
2.2142171e-19
2.9385756e-19
2.5054068e-19
2.21402e-19
1.7392185e-19
2.5871974e-19
1.7506686e-19
2.5504105e-19
2.5454956e-19
2.5535648e-19
2.5695558e-19
6.9366814e-20
2.8730336e-19
2.6812406e-19
2.5697111e-19
6.9167323e-20
2.8715339e-19
2.3165792e-19
2.4250382e-19
2.3465934e-19
2.4062553e-19
2.3179744e-19
2.4281776e-19
2.3497822e-19
1.8471224e-19
2.0685913e-19
1.847848e-19
3.3926851e-19
1.9819909e-19
2.5422982e-19
3.4072701e-19
1.9656231e-19
1.8228041e-19
2.4285922e-19
2.0041639e-19
2.2953566e-19
1.8225666e-19
2.4272007e-19
1.9980245e-19
2.3424983e-19
2.2981046e-19
2.3421978e-19
2.2979488e-19
2.2908808e-19
2.3153411e-19
2.2911366e-19
1.8673065e-19
1.8742086e-19
1.8671985e-19
1.8741449e-19
2.4743559e-19
2.3987698e-19
2.3833301e-19
2.4399622e-19
2.4753729e-19
2.3984625e-19
2.3835747e-19
2.9578415e-19
2.0500581e-19
2.6127214e-19
2.9620083e-19
2.0457134e-19
1.3620281e-19
1.3663282e-19
1.6441591e-19
1.5498054e-19
1.6459412e-19
1.4223361e-19
1.8598474e-19
1.8623438e-19
2.2965559e-19
2.1292545e-19
2.3594693e-19
2.2923499e-19
2.2991246e-19
2.1308576e-19
2.3619871e-19
1.8026935e-19
1.8079746e-19
1.8028765e-19
1.8278079e-19
1.8438576e-19
1.8265675e-19
1.8439334e-19
2.4687718e-19
2.3285224e-19
2.3082454e-19
2.3230492e-19
2.4682749e-19
2.3290709e-19
2.3085244e-19
2.6754478e-19
2.2398946e-19
2.229746e-19
2.6493486e-19
2.6775455e-19
2.2397794e-19
2.2297139e-19
2.6297543e-19
2.193665e-19
2.1593765e-19
2.6281142e-19
2.6306918e-19
2.1938273e-19
2.1581062e-19
3.2945244e-19
1.9013128e-19
2.5594624e-19
3.3069795e-19
1.8852882e-19
1.7949218e-19
1.7814317e-19
1.7939978e-19
1.7811692e-19
2.3059368e-19
1.9710948e-19
2.9759707e-19
2.3055276e-19
1.9677904e-19
2.9765685e-19
2.2894958e-19
2.2561802e-19
2.2874921e-19
1.8700542e-19
1.8627664e-19
1.8700689e-19
1.8628058e-19
2.3495448e-19
2.371806e-19
2.3422359e-19
2.3798215e-19
2.3496792e-19
2.371951e-19
2.3423611e-19
3.2628714e-19
2.4459234e-19
1.6682339e-19
3.274353e-19
2.4713357e-19
2.4357189e-19
1.9233817e-19
2.6474338e-19
1.9249501e-19
2.4370599e-19
1.9240028e-19
2.6507445e-19
3.078997e-19
2.5409555e-19
2.0411997e-19
3.0846531e-19
2.5731606e-19
1.8681893e-19
2.0743069e-19
1.868758e-19
2.0759056e-19